;;
;; Generated by CHARMM-GUI FF-Converter
;;
;; Correspondance:
;; jul316@lehigh.edu or wonpil@lehigh.edu
;;
;; The main GROMACS topology file
;;

; Include forcefield parameters
#include "toppar/forcefield.itp"
#include "toppar/PROA.itp"
#include "toppar/CHL1.itp"
#include "toppar/POPE.itp"
#include "toppar/POPC.itp"
#include "toppar/PSM.itp"
#include "toppar/POPS.itp"
#include "toppar/POPI.itp"
#include "toppar/POT.itp"
#include "toppar/CLA.itp"
#include "toppar/TIP3.itp"

[ system ]
; Name
Title

[ molecules ]
; Compound	#mols
PROA  	           1
CHL1  	         240
POPE  	         120
POPC  	         102
PSM   	          24
POPS  	          36
POPI  	           6
POT   	         131
CLA   	          87
TIP3  	       31947
