;;
;; Generated by CHARMM-GUI FF-Converter
;;
;; Correspondance:
;; jul316@lehigh.edu or wonpil@lehigh.edu
;;
;; The main GROMACS topology file
;;

; Include forcefield parameters
#include "toppar/forcefield.itp"
#include "toppar/PROA.itp"
#include "toppar/CHL1.itp"
#include "toppar/POPC.itp"
#include "toppar/POPI.itp"
#include "toppar/POPS.itp"
#include "toppar/POPE.itp"
#include "toppar/PSM.itp"
#include "toppar/DCLE.itp"
#include "toppar/POT.itp"
#include "toppar/CLA.itp"
#include "toppar/TIP3.itp"

[ system ]
; Name
Title

[ molecules ]
; Compound	#mols
PROA  	           1
CHL1  	         160
POPC  	          68
POPI  	           4
POPS  	          24
POPE  	          80
PSM   	          16
DCLE  	         704
POT   	          95
CLA   	          65
TIP3  	       23754
